LAMMPS data file Created by LigParGen - (Written by Leela S. Dodda)

      38 atoms
      40 bonds
      60 angles
      88 dihedrals
      18 impropers
 
      38 atom types
      40 bond types
      60 angle types
      88 dihedral types
      18 improper types
 
   -5.961380    44.038620 xlo xhi
    0.294180    50.294180 ylo yhi
   -1.174010    48.825990 zlo zhi

Masses

      1  12.011 # C-benzene
      #  1     12.011  
      #  2     12.011  
      #  3     12.011  
      #  4     12.011  
      #  5     12.011  
      #  6     12.011  
      # 11     12.011  
      # 12     12.011  
      # 13     12.011  
      # 14     12.011  
      # 15     12.011  
      # 16     12.011  
      # 17     12.011  
      # 18     12.011  
      # 19     12.011  
      # 20     12.011  
      # 21     12.011  
      # 22     12.011  
      2      15.999 # O
      #  7     15.999  
      #  8     15.999  
      3       14.007 # N
      #  9     14.007  
      # 10     14.007  
      # 23     14.007  
      # 24     14.007  
      4   1.008 # H_C
      # 25      1.008  
      # 26      1.008  
      # 27      1.008  
      # 30      1.008  
      # 31      1.008  
      # 32      1.008  
      # 33      1.008  
      # 34      1.008  
      # 35      1.008  
      # 36      1.008  
      # 37      1.008  
      5         1.008
      # 28      1.008  
      # 29      1.008  
      
      6         1.008 # H-N
      # 38      1.008  

Pair Coeffs 

       1      0.070  3.5500000 
       2      0.170  3.1200000 
       3      0.170  3.2500000 
       4      0.030  2.4200000 
       5      0.000  0.0000000 
       6      0.000  0.0000000 

Bond Coeffs 

       1   427.0000     1.4330 # 1 1
       2   385.0000     1.4600 # 1 1
       3   410.0000     1.4440 # 1 1
       4   410.0000     1.4440 # 1 1
       5   427.0000     1.4330 # 1 1
       6   450.0000     1.3700 # 2 1
       7   450.0000     1.3700 # 2 1
       8   457.0000     1.3580 # 3 1
       9   500.0000     1.3200 # 3 3
      10   457.0000     1.3580 # 3 1
      11   410.0000     1.4440 # 1 1
      12   549.0000     1.3400 # 1 1 
      13   427.0000     1.4330 # 1 1
      14   385.0000     1.4600 # 1 1
      15   410.0000     1.4440 # 1 1
      16   385.0000     1.4600 # 1 1
      17   385.0000     1.4600 # 1 1
      18   385.0000     1.4600 # 1 1
      19   410.0000     1.4440 # 1 1
      20   410.0000     1.4440 # 1 1
      21   385.0000     1.4600 # 1 1
      22   457.0000     1.3580 # 1 1
      23   500.0000     1.3200 # 3 1
      24   367.0000     1.0800 # 3 1
      25   412.5200     1.0500 # 4 1
      26   367.0000     1.0800 # 4 1
      27   553.0000     0.9450 # 2 1
      28   553.0000     0.9450 # 2 1
      29   367.0000     1.0800 # 4 1
      30   374.4600     1.1200 # 4 1
      31   374.4600     1.1200 # 4 1
      32   367.0000     1.0800 # 4 1
      33   374.4600     1.1200 # 4 1
      34   412.5200     1.0500 # 4 1
      35   412.5200     1.0500 # 4 1
      36   374.4600     1.1200 # 4 1
      37   434.0000     1.0100 # 4 1
      38   427.0000     1.4330 # 1 1
      39   549.0000     1.3400 # 1 1
      40   385.0000     1.4600 # 1 1

Angle Coeffs 

       1     85.000    117.000
       2     85.000    120.700
       3     69.900    118.180
       4     70.000    124.000
       5     45.740    115.690
       6     60.000    122.260
       7     69.900    118.180
       8     60.260    116.570
       9     60.260    116.570
      10     69.900    118.180
      11     85.000    120.700
      12     85.000    117.000
      13     64.270    120.730
      14     69.900    118.180
      15     70.000    124.000
      16     70.000    124.000
      17     85.000    117.000
      18     85.000    120.700
      19     69.900    118.180
      20     70.000    124.000
      21     69.900    118.180
      22     60.260    116.570
      23     64.510    118.990
      24     60.000    122.260
      25     35.000    120.000
      26     35.000    109.000
      27     35.000    109.000
      28     35.000    120.000
      29     45.740    115.690
      30     45.740    115.690
      31     35.000    120.000
      32     45.740    115.690
      33     60.000    122.260
      34     60.000    122.260
      35     45.740    115.690
      36     60.260    116.570
      37     45.740    115.690
      38     35.000    120.000
      39     85.000    120.700
      40     69.900    118.180
      41     70.000    124.000
      42     60.000    122.260
      43     85.000    117.000
      44     69.900    118.180
      45     45.740    115.690
      46     60.430    118.760
      47     45.740    115.690
      48     85.000    120.000
      49     70.000    123.000
      50     64.270    120.730
      51     60.430    118.760
      52     45.740    115.690
      53     85.000    117.000
      54     60.430    118.760
      55     60.000    122.260
      56     70.000    123.000
      57     85.000    117.000
      58     85.000    120.700
      59     60.000    122.260
      60     85.000    120.700

Dihedral Coeffs  

       1      0.000      0.000      0.300      0.000 
       2      0.000     14.000      0.000      0.000 
       3      1.241      3.353     -0.286      0.000 
       4      0.000     14.000      0.000      0.000 
       5      0.000      7.250      0.000      0.000 
       6      0.000     14.000      0.000      0.000 
       7      2.000      0.000      0.000      0.000 
       8      0.000      7.250      0.000      0.000 
       9      0.000      0.000     -0.372      0.000 
      10      0.000      2.170      0.000      0.000 
      11      0.000      7.250      0.000      0.000 
      12      0.000      0.000      0.300      0.000 
      13      0.000     14.000      0.000      0.000 
      14      0.000     14.000      0.000      0.000 
      15      0.000      1.682      0.000      0.000 
      16      3.000      5.500      0.000      0.000 
      17      0.000      7.250      0.000      0.000 
      18      0.000      0.000      0.000      0.000 
      19      0.000      7.250      0.000      0.000 
      20      0.000      0.000      0.000      0.000 
      21      0.000      0.000      0.300      0.000 
      22      0.000      0.000      0.000      0.000 
      23      0.000      0.000      0.300      0.000 
      24      0.000      0.000     -0.372      0.000 
      25      0.000     14.000      0.000      0.000 
      26      0.000     14.000      0.000      0.000 
      27      0.000      7.250      0.000      0.000 
      28      0.000      7.250      0.000      0.000 
      29      0.000      0.000     -0.372      0.000 
      30      0.000      0.000      0.300      0.000 
      31      0.000      2.100      0.000      0.000 
      32      0.000     14.000      0.000      0.000 
      33      1.241      3.353     -0.286      0.000 
      34      0.000     14.000      0.000      0.000 
      35      0.000      7.250      0.000      0.000 
      36      0.000      7.250      0.000      0.000 
      37      0.000      0.000     -0.372      0.000 
      38      2.000      0.000      0.000      0.000 
      39      0.000      7.250      0.000      0.000 
      40      0.000      0.000     -0.372      0.000 
      41      0.000      0.000      0.300      0.000 
      42      0.000      7.250      0.000      0.000 
      43      2.000      0.000      0.000      0.000 
      44      0.000      0.000      0.300      0.000 
      45      0.000      2.170      0.000      0.000 
      46      0.000     14.000      0.000      0.000 
      47      0.000      7.250      0.000      0.000 
      48      0.000     14.000      0.000      0.000 
      49      0.000      7.250      0.000      0.000 
      50      0.000      0.000      0.000      0.000 
      51      0.000     14.000      0.000      0.000 
      52      0.000     14.000      0.000      0.000 
      53      0.000      0.000      0.300      0.000 
      54      0.000     14.000      0.000      0.000 
      55      0.000      7.000      0.000      0.000 
      56      0.000      7.250      0.000      0.000 
      57      3.200     -3.000      0.000      0.000 
      58      0.000     14.000      0.000      0.000 
      59      0.000      2.170      0.000      0.000 
      60      0.000     14.000      0.000      0.000 
      61      1.423      4.055      0.858      0.000 
      62      0.000     14.000      0.000      0.000 
      63      2.000      0.000      0.000      0.000 
      64      0.000      0.000     -0.372      0.000 
      65      0.000      7.250      0.000      0.000 
      66      0.000      2.170      0.000      0.000 
      67      0.000      0.000      0.000      0.000 
      68      0.000      0.000      0.000      0.000 
      69     -0.356     -0.174      0.492      0.000 
      70      0.000     14.000      0.000      0.000 
      71      0.000      7.000      0.000      0.000 
      72      3.200     -3.000      0.000      0.000 
      73      0.000      0.000     -0.372      0.000 
      74      0.000     14.000      0.000      0.000 
      75      0.000      7.000      0.000      0.000 
      76      2.000      0.000      0.000      0.000 
      77      0.000      0.000      0.000      0.000 
      78      1.241      3.353     -0.286      0.000 
      79      0.000     14.000      0.000      0.000 
      80      0.000     14.000      0.000      0.000 
      81      0.000      0.000     -0.372      0.000 
      82      0.000      7.250      0.000      0.000 
      83      0.000      0.000      0.000      0.000 
      84      0.000      7.250      0.000      0.000 
      85      0.000      7.250      0.000      0.000 
      86      3.200     -3.000      0.000      0.000 
      87      0.000      1.682      0.000      0.000 
      88      0.000     14.000      0.000      0.000 

Improper Coeffs 

       1      2.500      -1       2 
       2      2.500      -1       2 
       3     10.500      -1       2 
       4     10.500      -1       2 
       5      2.500      -1       2 
       6      2.500      -1       2 
       7     10.500      -1       2 
       8      2.500      -1       2 
       9      2.500      -1       2 
      10      2.500      -1       2 
      11      2.500      -1       2 
      12      2.500      -1       2 
      13      2.500      -1       2 
      14      2.500      -1       2 
      15      2.500      -1       2 
      16      2.500      -1       2 
      17      2.500      -1       2 
      18      2.500      -1       2 

Atoms 

     1      1      1 -0.09570000    1.000  1.00000  0.00000
     2      1      1 0.08570000   -0.395  1.00000  0.00000
     3      1      1 -0.18130000   -1.091  1.00000  1.20859
     4      1      1 -0.02030000   -0.392  1.00000  2.41537
     5      1      1 0.12650000    1.003  1.00000  2.41185
     6      1      1 -0.23480000    1.696  1.00000  1.20854
     7      1      2 -0.49120000   -1.071  0.99852 -1.17401
     8      1      2 -0.40970000    1.682  0.99852  3.58419
     9      1      3 -0.15220000   -1.021  0.99862  3.50714
    10      1      3 -0.02610000   -0.177  0.99746  4.42619
    11      1      1 -0.04230000   -0.806  0.99456  5.51791
    12      1      1 -0.09550000   -0.106  0.99418  6.72470
    13      1      1 -0.14990000   -0.803  0.98944  7.93323
    14      1      1 -0.02960000   -2.197  0.98509  7.93323
    15      1      1 -0.14800000   -2.894  0.98548  6.72465
    16      1      1 -0.13100000   -2.200  0.99326  5.51790
    17      1      1 0.00030000   -2.865  0.97909  9.09168
    18      1      1 -0.16310000   -4.207  0.59986  9.12018
    19      1      1 -0.07780000   -4.903  0.59214 10.32899
    20      1      1 -0.08910000   -4.256  0.96367 11.50740
    21      1      1 -0.10770000   -2.914  1.34240 11.47542
    22      1      1 -0.16060000   -2.218  1.35064 10.27017
    23      1      3 0.05780000   -4.884  0.95539 12.59953
    24      1      3 -0.46700000   -4.091  1.32197 13.49079
    25      1      4 0.16350000    1.549  1.00120 -0.95308
    26      1      4 0.17070000   -2.191  1.00120  1.20859
    27      1      4 0.16060000    2.796  0.99880  1.20854
    28      1      5 0.43160000   -2.022  0.99760 -0.97199
    29      1      5 0.39660000    2.633  0.99994  3.37977
    30      1      4 0.17070000    0.994  0.99882  6.72192
    31      1      4 0.16090000   -0.251  0.99034  8.88490
    32      1      4 0.15770000   -3.994  0.97843  6.72463
    33      1      4 0.19470000   -2.750  0.99959  4.56477
    34      1      4 0.16280000   -4.714  0.30612  8.18948
    35      1      4 0.16860000   -5.961  0.29418 10.35129
    36      1      4 0.19810000   -2.404  1.63658 12.40469
    37      1      4 0.16150000   -1.160  1.65049 10.24477
    38      1      6 0.30490000   -4.658  1.29445 14.34049

Bonds 

     1      1      2      1
     2      2      3      2
     3      3      4      3
     4      4      5      4
     5      5      6      1
     6      6      7      2
     7      7      8      5
     8      8      9      4
     9      9     10      9
    10     10     11     10
    11     11     12     11
    12     12     13     12
    13     13     14     13
    14     14     15     14
    15     15     16     11
    16     16     17     14
    17     17     18     17
    18     18     19     18
    19     19     20     19
    20     20     21     20
    21     21     22     17
    22     22     23     20
    23     23     24     23
    24     24     25      1
    25     25     26      3
    26     26     27      6
    27     27     28      7
    28     28     29      8
    29     29     30     12
    30     30     31     13
    31     31     32     15
    32     32     33     16
    33     33     34     18
    34     34     35     19
    35     35     36     21
    36     36     37     22
    37     37     38     24
    38     38      6      5
    39     39     16     15
    40     40     22     21

Angles 

     1      1      1      2      3
     2      2      2      3      4
     3      3      3      4      5
     4      4      2      1      6
     5      5      1      2      7
     6      6      4      5      8
     7      7      3      4      9
     8      8      4      9     10
     9      9      9     10     11
    10     10     10     11     12
    11     11     11     12     13
    12     12     12     13     14
    13     13     13     14     15
    14     14     10     11     16
    15     15     13     14     17
    16     16     14     17     18
    17     17     17     18     19
    18     18     18     19     20
    19     19     19     20     21
    20     20     14     17     22
    21     21     19     20     23
    22     22     20     23     24
    23     23      2      1     25
    24     24      2      3     26
    25     25      1      6     27
    26     26      2      7     28
    27     27      5      8     29
    28     28     11     12     30
    29     29     12     13     31
    30     30     14     15     32
    31     31     11     16     33
    32     32     17     18     34
    33     33     18     19     35
    34     34     20     21     36
    35     35     17     22     37
    36     36     23     24     38
    37     37     16     15     32
    38     38      6      1     25
    39     39      4      5      6
    40     40      5      4      9
    41     41     15     14     17
    42     42     22     21     36
    43     43     17     22     21
    44     44     21     20     23
    45     45     21     22     37
    46     46     13     12     30
    47     47     14     13     31
    48     48     12     11     16
    49     49      6      5      8
    50     50     18     17     22
    51     51      5      6     27
    52     52     19     18     34
    53     53     14     15     16
    54     54     15     16     33
    55     55     20     19     35
    56     56      3      2      7
    57     57      1      6      5
    58     58     11     16     15
    59     59      4      3     26
    60     60     20     21     22

Dihedrals

     1      1      4      3      2      1 
     2      2      5      4      3      2 
     3      3      6      1      2      3 
     4      4     10      9      4      3 
     5      5     11     10      9      4 
     6      6     12     11     10      9 
     7      7     13     12     11     10 
     8      8     14     13     12     11 
     9      9     15     14     13     12 
    10     10     18     17     14     13 
    11     11     19     18     17     14 
    12     12     20     19     18     17 
    13     13     21     20     19     18 
    14     14     24     23     20     19 
    15     15     28      7      2      1 
    16     16     29      8      5      4 
    17     17     38     24     23     20 
    18     18     35     19     20     23 
    19     19     37     22     17     14 
    20     20     26      3      4      9 
    21     21     34     18     19     20 
    22     22     36     21     20     23 
    23     23     26      3      2      7 
    24     24     17     14     15     16 
    25     25     22     17     18     19 
    26     26     36     21     20     19 
    27     27     25      1      6      5 
    28     28     32     15     14     17 
    29     29     26      3      2      1 
    30     30     35     19     18     34 
    31     31      7      2      1      6 
    32     32     33     16     15     32 
    33     33      4      5      6      1 
    34     34     35     19     20     21 
    35     35     31     13     14     17 
    36     36     21     22     17     14 
    37     37     17     14     13     12 
    38     38      9      4      5      6 
    39     39     34     18     17     14 
    40     40     27      6      1      2 
    41     41     20     21     22     17 
    42     42     32     15     14     13 
    43     43     15     16     11     12 
    44     44     37     22     21     36 
    45     45     22     17     14     15 
    46     46     27      6      5      8 
    47     47     31     13     14     15 
    48     48     32     15     16     11 
    49     49     27      6      1     25 
    50     50     33     16     11     12 
    51     51     30     12     13     14 
    52     52     26      3      4      5 
    53     53     37     22     21     20 
    54     54     21     22     17     18 
    55     55     23     20     19     18 
    56     56     25      1      2      7 
    57     57      7      2      3      4 
    58     58     33     16     15     14 
    59     59     22     17     14     13 
    60     60     27      6      5      4 
    61     61      6      5      4      3 
    62     62     31     13     12     11 
    63     63     16     11     12     13 
    64     64     35     19     18     17 
    65     65     25      1      2      3 
    66     66     18     17     14     15 
    67     67     30     12     11     16 
    68     68     30     12     11     10 
    69     69     28      7      2      3 
    70     70     22     21     20     19 
    71     71     23     20     21     22 
    72     72      8      5      6      1 
    73     73     36     21     22     17 
    74     74     10      9      4      5 
    75     75      9      4      3      2 
    76     76     15     16     11     10 
    77     77      9      4      5      8 
    78     78      5      6      1      2 
    79     79     16     11     10      9 
    80     80     24     23     20     21 
    81     81     16     15     14     13 
    82     82     34     18     17     22 
    83     83     33     16     11     10 
    84     84     37     22     17     18 
    85     85     14     15     16     11 
    86     86      8      5      4      3 
    87     87     29      8      5      6 
    88     88     31     13     12     30 

Impropers

     1      1      2      1      3      7 
     2      2      5      4      6      8 
     3      3      4      9      3      5 
     4      4     11     10     12     16 
     5      5     14     17     13     15 
     6      6     17     18     22     14 
     7      7     20     19     21     23 
     8      8      1     25      6      2 
     9      9      3     26      4      2 
    10     10      6      1     27      5 
    11     11     12     11     13     30 
    12     12     13     12     14     31 
    13     13     15     16     14     32 
    14     14     16     33     11     15 
    15     15     18     17     34     19 
    16     16     19     18     35     20 
    17     17     21     20     36     22 
    18     18     22     17     21     37 

