B1 OC1=CC(O)=CC(O)=C1

      12 atoms
      15 bonds
      21 angles
      30 dihedrals
       6 impropers
 
      15 atom types
      15 bond types
      21 angle types
      30 dihedral types
       6 improper types
 
   -4.229530    45.770470 xlo xhi
    0.992150    50.992150 ylo yhi
   -2.494420    47.505580 zlo zhi

Masses

       1     15.999 # O
       2     12.011 # 3/6/9 C-OH
       3     12.011 # 2/4/7 C-H
       3      1.008 # H' 11/13/15 H-C
       4      1.008 # H  10/12/14 HO

       1     15.999  # O
       2     12.011  # C
       3     12.011  
       4     12.011  
       5     15.999  
       6     12.011  
       7     12.011  
       8     15.999  
       9     12.011  
      10      1.008  
      11      1.008  
      12      1.008  
      13      1.008  
      14      1.008  
      15      1.008  

Pair Coeffs 

       1      0.170  3.1200000 
       2      0.070  3.5500000 
       3      0.070  3.5500000 
       4      0.070  3.5500000 
       5      0.170  3.1200000 
       6      0.070  3.5500000 
       7      0.070  3.5500000 
       8      0.170  3.1200000 
       9      0.070  3.5500000 
      10      0.000  0.0000000 
      11      0.030  2.4200000 
      12      0.000  0.0000000 # H
      13      0.030  2.4200000 
      14      0.000  0.0000000 
      15      0.030  2.4200000 

Bond Coeffs 

       1   450.0000     1.3640 
       2   469.0000     1.4000 
       3   469.0000     1.4000 
       4   450.0000     1.3640 
       5   469.0000     1.4000 
       6   469.0000     1.4000 
       7   450.0000     1.3640 
       8   469.0000     1.4000 
       9   553.0000     0.9450 
      10   367.0000     1.0800 
      11   553.0000     0.9450 
      12   367.0000     1.0800 
      13   553.0000     0.9450 
      14   367.0000     1.0800 
      15   469.0000     1.4000 

Angle Coeffs 

       1     70.000    120.000
       2     63.000    120.000
       3     70.000    120.000
       4     63.000    120.000
       5     63.000    120.000
       6     70.000    120.000
       7     70.000    120.000
       8     35.000    113.000
       9     35.000    120.000
      10     35.000    113.000
      11     35.000    120.000
      12     35.000    113.000
      13     35.000    120.000
      14     35.000    120.000
      15     70.000    120.000
      16     35.000    120.000
      17     63.000    120.000
      18     70.000    120.000
      19     63.000    120.000
      20     35.000    120.000
      21     63.000    120.000

Dihedral Coeffs  

       1      0.000      7.250      0.000      0.000 
       2      0.000      7.250      0.000      0.000 
       3      0.000      7.250      0.000      0.000 
       4      0.000      7.250      0.000      0.000 
       5      0.000      1.682      0.000      0.000 
       6      0.000      1.682      0.000      0.000 
       7      0.000      1.682      0.000      0.000 
       8      0.000      7.250      0.000      0.000 
       9      0.000      7.250      0.000      0.000 
      10      0.000      7.250      0.000      0.000 
      11      0.000      7.250      0.000      0.000 
      12      0.000      7.250      0.000      0.000 
      13      0.000      7.250      0.000      0.000 
      14      0.000      7.250      0.000      0.000 
      15      0.000      7.250      0.000      0.000 
      16      0.000      1.682      0.000      0.000 
      17      0.000      7.250      0.000      0.000 
      18      0.000      7.250      0.000      0.000 
      19      0.000      7.250      0.000      0.000 
      20      0.000      1.682      0.000      0.000 
      21      0.000      7.250      0.000      0.000 
      22      0.000      1.682      0.000      0.000 
      23      0.000      7.250      0.000      0.000 
      24      0.000      7.250      0.000      0.000 
      25      0.000      7.250      0.000      0.000 
      26      0.000      7.250      0.000      0.000 
      27      0.000      7.250      0.000      0.000 
      28      0.000      7.250      0.000      0.000 
      29      0.000      7.250      0.000      0.000 
      30      0.000      7.250      0.000      0.000 

Improper Coeffs 

       1      2.500      -1       2 
       2      2.500      -1       2 
       3      2.500      -1       2 
       4      2.500      -1       2 
       5      2.500      -1       2 
       6      2.500      -1       2 

Atoms 

     1      1      1 -0.71050000    1.000  1.00000  0.00000
     2      1      2 0.43530000   -0.365  1.00000  0.00000
     3      1      3 -0.38350000   -1.088  1.00000  1.19080
     4      1      4 0.43960000   -2.481  0.99845  1.12647
     5      1      5 -0.71370000   -3.244  0.99690  2.25818
     6      1      6 -0.31860000   -3.145  0.99693 -0.09703
     7      1      7 0.43120000   -2.397  0.99697 -1.27014
     8      1      8 -0.70860000   -2.999  0.99404 -2.49442
     9      1      9 -0.25060000   -1.009  0.99844 -1.23302
    10      1     10 0.43100000    1.318  1.00000  0.91712
    11      1     11 0.14310000   -0.577  1.00236  2.14595
    12      1     12 0.43150000   -2.658  0.99710  3.03300
    13      1     13 0.16170000   -4.230  0.99456 -0.11321
    14      1     14 0.43330000   -3.961  0.99215 -2.36449
    15      1     15 0.17870000   -0.433  0.99719 -2.15314

Bonds 

     1      1      2      1
     2      2      3      2
     3      3      4      3
     4      4      5      4
     5      5      6      4
     6      6      7      6
     7      7      8      7
     8      8      9      2
     9      9     10      1
    10     10     11      3
    11     11     12      5
    12     12     13      6
    13     13     14      8
    14     14     15      9
    15     15      9      7

Angles 

     1      1      1      2      3
     2      2      2      3      4
     3      3      3      4      5
     4      4      3      4      6
     5      5      4      6      7
     6      6      6      7      8
     7      7      1      2      9
     8      8      2      1     10
     9      9      2      3     11
    10     10      4      5     12
    11     11      4      6     13
    12     12      7      8     14
    13     13      2      9     15
    14     14      7      9     15
    15     15      5      4      6
    16     16      4      3     11
    17     17      2      9      7
    18     18      8      7      9
    19     19      3      2      9
    20     20      7      6     13
    21     21      6      7      9

Dihedrals

     1      1      4      3      2      1 
     2      2      5      4      3      2 
     3      3      7      6      4      3 
     4      4      8      7      6      4 
     5      5     10      1      2      3 
     6      6     12      5      4      3 
     7      7     14      8      7      6 
     8      8     15      9      7      8 
     9      9     11      3      2      9 
    10     10     11      3      2      1 
    11     11     15      9      7      6 
    12     12      6      4      3      2 
    13     13     15      9      2      3 
    14     14     13      6      4      5 
    15     15     11      3      4      5 
    16     16     14      8      7      9 
    17     17      9      2      3      4 
    18     18     13      6      4      3 
    19     19     11      3      4      6 
    20     20     12      5      4      6 
    21     21      7      9      2      1 
    22     22     10      1      2      9 
    23     23     15      9      2      1 
    24     24     13      6      7      9 
    25     25      8      7      9      2 
    26     26     13      6      7      8 
    27     27      6      7      9      2 
    28     28      9      7      6      4 
    29     29      7      9      2      3 
    30     30      7      6      4      5 

Impropers

     1      1      4      3      5      6 
     2      2      2      9      3      1 
     3      3      3      2     11      4 
     4      4      6      4     13      7 
     5      5      9      2      7     15 
     6      6      7      9      6      8 

