Random packing of 30 x 'A2.data', 20 x 'B2.data'

640 atoms
670 bonds
860 angles
1040 dihedrals
0 impropers

8 atom types
13 bond types
20 angle types
36 dihedral types

0.000000 40.000000 xlo xhi
0.000000 40.000000 ylo yhi
0.000000 40.000000 zlo zhi

Masses

 1 12
 2 12
 3 16
 4 14
 5 14
 6 12
 7 12
 8 14

Pair Coeffs

 1 0.07 3.55
 2 0.07 3.55
 3 0.07 3.55
 4 0.17 3.25
 5 0.17 3.25
 6 0.17 3.12
 7 0.07 3.55
 8 0.17 3.25

Bond Coeffs

 1 410.0 1.44
 2 410.0 1.44
 3 450.0 1.37
 4 457.0 1.35
 5 500.0 1.32
 6 457.0 1.35
 7 410.0 1.44
 8 410.0 1.44
 9 500.0 1.32
 10 457.0 1.35
 11 410.0 1.44
 12 410.0 1.44
 13 410.0 1.44

Angle Coeffs

 1 60.0 122.0
 2 60.0 122.0
 3 60.0 122.0
 4 69.9 118.18
 5 69.9 118.18
 6 69.9 118.18
 7 60.26 116.57
 8 60.26 116.57
 9 85.0 120.7
 10 60.0 122.0
 11 60.0 122.0
 12 60.0 122.0
 13 60.0 122.0
 14 60.0 122.0
 15 60.0 122.0
 16 60.0 122.0
 17 60.0 122.0
 18 60.0 122.0
 19 60.0 122.0
 20 60.0 122.0 

Dihedral Coeffs

 1 0.0 1.682 0.0 0.0
 2 0.0 0.0 0.3 0.0
 3 0.0 14.0 0.0 0.0
 4 0.0 7.25 0.0 0.0
 5 2.0 14.0 0.0 0.0
 6 2.0 0.0 0.0 0.0
 7 0.0 7.0 0.0 0.0
 8 0.0 7.5 0.0 0.0
 9 0.0 0.0 0.0 0.0
 10 2.0 0.0 0.0 0.0
 11 0.0 14.0 0.0 0.0
 12 0.0 14.0 0.0 0.0
13 0.0 14.0 0.0 0.0
14 0.0 14.0 0.0 0.0
15 0.0 14.0 0.0 0.0
16 0.0 14.0 0.0 0.0
17 0.0 14.0 0.0 0.0
18 0.0 14.0 0.0 0.0
19 0.0 14.0 0.0 0.0
20 0.0 14.0 0.0 0.0
21 0.0 14.0 0.0 0.0
22 0.0 14.0 0.0 0.0
23 0.0 14.0 0.0 0.0
24 0.0 14.0 0.0 0.0
25 0.0 14.0 0.0 0.0
26 0.0 14.0 0.0 0.0
27 0.0 14.0 0.0 0.0
28 0.0 14.0 0.0 0.0
29 0.0 14.0 0.0 0.0
30 0.0 14.0 0.0 0.0
31 0.0 14.0 0.0 0.0
32 0.0 14.0 0.0 0.0
33 0.0 14.0 0.0 0.0
34 0.0 14.0 0.0 0.0
35 0.0 14.0 0.0 0.0
36 0.0 14.0 0.0 0.0

Atoms

 1 2 4 -0.152 7.54338284548668 10.7824975662804 25.2506803601289
 2 2 5 -0.026 6.54954903993358 11.4171685260703 24.9214583381752
 3 2 6 -0.0423 5.5364629135756 10.7004437066479 25.1943283325038
 4 2 6 -0.131 5.70673819518756 9.43990283672112 25.7646607300724
 5 2 6 -0.148 4.5804094334607 8.66704119769293 26.0792531766211
 6 2 6 -0.029 3.29675570085959 9.12977664702322 25.791402523135
 7 2 6 -0.1499 3.15576386161526 10.3986579105522 25.2307612471559
 8 2 6 -0.0955 4.25986944361081 11.188435191015 24.9284158964869
 9 2 6 0.0003 2.22620297698633 8.39312557058932 26.1033817804524
 10 2 6 -0.1631 2.34534532980305 7.32190961473331 26.9925466106638
 11 2 6 -0.0778 1.23108574409113 6.54091047728898 27.3002154952789
 12 2 6 -0.0891 0.00651609868242353 6.82458308502271 26.7113954589647
 13 2 6 -0.107 -0.118266927150168 7.89927961364626 25.8096096929268
 14 2 6 -0.1606 0.991543534568374 8.68332384171797 25.5002225770226
 15 2 5 0.0578 -1.00726273142651 6.11719226790265 26.9855486378213
 16 2 4 -0.467 -1.87291207396867 5.83948653758885 26.6693177204409
 17 4 4 -0.152 12.7322921855991 20.00621932308 3.80689308284197
 18 4 5 -0.026 13.8714426442342 20.4077856071425 4.00684495729091
 19 4 6 -0.0423 14.6454333084579 19.4033739715941 3.92565556100207
 20 4 6 -0.131 14.1232004917512 18.1404841251282 3.65066806883565
 21 4 6 -0.148 14.9896541043385 17.0437644604839 3.54406546841403
 22 4 6 -0.029 16.3604870429859 17.197204142032 3.74905892793357
 23 4 6 -0.1499 16.8563587336834 18.4736039461313 4.01206426335476
 24 4 6 -0.0955 16.0153318006998 19.5774775171994 4.10342528947418
 25 4 6 0.0003 17.182974309506 16.1499675322229 3.63557245522497
 26 4 6 -0.1631 16.7478767279756 14.9795887487232 3.00850290782194
 27 4 6 -0.0778 17.6008115996091 13.8800278744962 2.91020637573184
 28 4 6 -0.0891 18.8788828321432 13.9487184790953 3.44738932911782
 29 4 6 -0.107 19.3208365241984 15.123663069401 4.08609359854935
 30 4 6 -0.1606 18.4730652388379 16.2252672295034 4.18547731030915
 31 4 5 0.0578 19.6559766945676 12.9525813278184 3.36286031144799
 32 4 4 -0.467 20.4281102370345 12.530659974829 3.75306976096077
 33 6 4 -0.152 7.00398373354227 2.43646944360755 11.1732778824423
 34 6 5 -0.026 6.34483373191298 1.78303739564503 11.971681185321
 35 6 6 -0.0423 5.86508079800556 2.59738974169652 12.8208945736326
 36 6 6 -0.131 6.14032152886466 3.9597562124801 12.7139546869634
 37 6 6 -0.148 5.58896909330236 4.85029369453479 13.6455412287593
 38 6 6 -0.029 4.80250228892947 4.38270357223069 14.6979567565539
 39 6 6 -0.1499 4.53484638153634 3.016388036906 14.7741090590009
 40 6 6 -0.0955 5.05721158504033 2.11891122771132 13.8489712470366
 41 6 6 0.0003 4.27072387582143 5.23752794877592 15.5769084074519
 42 6 6 -0.1631 4.21988608165967 6.60325545452448 15.2861911593798
 43 6 6 -0.0778 3.68399806120903 7.49652254470177 16.2141416724697
 44 6 6 -0.0891 3.2120257188843 7.0254128681209 17.4315355202907
 45 6 6 -0.107 3.26633428095498 5.65059281587169 17.7326690521653
 46 6 6 -0.1606 3.79934489807228 4.75410087584046 16.8083710031036
 47 6 5 0.0578 2.7269119286732 7.83245399137076 18.2780923618144
 48 6 4 -0.467 2.53614923869303 7.96073382597267 19.2127715207486
 49 8 4 -0.152 23.2345243682132 25.2897318019043 5.47943682218911
 50 8 5 -0.026 23.5118037470173 25.6344672929591 6.62100310904995
 51 8 6 -0.0423 24.7773630413358 25.5996905006352 6.72892088923377
 52 8 6 -0.131 25.560041438531 25.2144418365495 5.64161504753874
 53 8 6 -0.148 26.9560608894133 25.1991715292624 5.76729921708149
 54 8 6 -0.029 27.5652483100272 25.5267294484635 6.97822675254114
 55 8 6 -0.1499 26.7583629767561 25.9186100971342 8.04575783693604
 56 8 6 -0.0955 25.3725458204122 25.9581334535824 7.93549128045567
 57 8 6 0.0003 28.8970731357396 25.52075526515 7.08902360606124
 58 8 6 -0.1631 29.6973023725181 25.5048874089354 5.94373150386897
 59 8 6 -0.0778 31.087080929323 25.47689100612 6.06173991066649
 60 8 6 -0.0891 31.6717658187862 25.4533736414378 7.32044579910579
 61 8 6 -0.107 30.8701023491211 25.4629782793692 8.47846325680439
 62 8 6 -0.1606 29.4813742197901 25.492459473654 8.3658131703047
 63 8 5 0.0578 32.9326793376758 25.4255060008276 7.43282792619163
 64 8 4 -0.467 33.6582129020713 25.1875706432901 8.01888173137415
 65 10 4 -0.152 20.8490590701151 25.8916626684447 34.9792553489208
 66 10 5 -0.026 21.5344900172642 25.5448898699764 34.02592799542
 67 10 6 -0.0423 20.7540649589558 25.0223170331208 33.1701532829255
 68 10 6 -0.131 19.3873212585976 24.9389196506327 33.4314816857547
 69 10 6 -0.148 18.5341279400437 24.3781744766096 32.4709995094574
 70 10 6 -0.029 19.043743494952 23.8687426055227 31.2770480217845
 71 10 6 -0.1499 20.4132735841725 23.9752077232548 31.0376539670838
 72 10 6 -0.0955 21.2737842672348 24.5449407238574 31.9699284290102
 73 10 6 0.0003 18.2242222614467 23.3449989767789 30.3604529316907
 74 10 6 -0.1631 16.8490897578819 23.5827590126588 30.4296871903928
 75 10 6 -0.0778 15.9929573666802 23.0174170222051 29.4843724374322
 76 10 6 -0.0891 16.510494546919 22.2088926264568 28.4817790160742
 77 10 6 -0.107 17.8950751131897 21.9606363637919 28.4105997806667
 78 10 6 -0.1606 18.7545778765576 22.5243303466908 29.3516784667533
 79 10 5 0.0578 15.7373063569117 21.6914974793898 27.6228310929585
 80 10 4 -0.467 15.644128315563 20.9713408189456 26.9910372286101
 81 12 4 -0.152 27.8453339822785 24.8234430469335 29.6036927859202
 82 12 5 -0.026 28.6478297048278 24.7022477833097 28.6870618223557
 83 12 6 -0.0423 29.7829961110251 24.4680760999087 29.2076930286182
 84 12 6 -0.131 29.9133534775647 24.3954014151407 30.5936805275455
 85 12 6 -0.148 31.1671781226082 24.1168500850479 31.1551365952703
 86 12 6 -0.029 32.2893744150445 23.9514984899342 30.3439132405551
 87 12 6 -0.1499 32.1276231616909 24.018855830974 28.9605996388557
 88 12 6 -0.0955 30.8885881731871 24.2757763113735 28.3835431736684
 89 12 6 0.0003 33.4801302469515 23.6755014238394 30.8842790132372
 90 12 6 -0.1631 33.5662190379653 23.236399522556 32.2079447036407
 91 12 6 -0.0778 34.8117438665077 22.9695007626328 32.7768270930991
 92 12 6 -0.0891 35.9655482331436 23.1525001738654 32.0271627021744
 93 12 6 -0.107 35.8853510017637 23.6008379088703 30.6943751424149
 94 12 6 -0.1606 34.6433899057452 23.8673516915346 30.1211142597216
 95 12 5 0.0578 37.098542659588 22.9139280422209 32.5397212038585
 96 12 4 -0.467 38.0391098713108 23.1087124746077 32.4775633794778
 97 14 4 -0.152 12.4595662396052 17.731076791376 37.4609360720522
 98 14 5 -0.026 13.0072903398541 16.7656261307982 36.9444059838711
 99 14 6 -0.0423 14.1745694143002 16.6842007057355 37.4397093883754
 100 14 6 -0.131 14.5950542611283 17.6120758266769 38.3912745482703
 101 14 6 -0.148 15.8780282709374 17.4997582778308 38.9446843949262
 102 14 6 -0.029 16.748977543566 16.4950179532079 38.5243354391949
 103 14 6 -0.1499 16.2980372158721 15.574435025322 37.5791175311206
 104 14 6 -0.0955 15.0222225090882 15.6577396991489 37.0317902384772
 105 14 6 0.0003 17.9670992428088 16.3863755712105 39.0632652664152
 106 14 6 -0.1631 18.2703712439222 17.0513563839103 40.2541217782091
 107 14 6 -0.0778 19.548952177086 16.9540480037578 40.8036270976574
 108 14 6 -0.0891 20.5217779344027 16.2038129310638 40.1574789864622
 109 14 6 -0.107 20.2236783721895 15.5363502199693 38.9535723537424
 110 14 6 -0.1606 18.9474869589978 15.6292430225969 38.4014569635242
 111 14 5 0.0578 21.6844493053758 16.1143492538365 40.6509369720866
 112 14 4 -0.467 22.6067742058537 15.9311917501691 40.445409949998
 113 16 4 -0.152 -0.684925854304042 11.8244141881287 14.5069176714175
 114 16 5 -0.026 -0.919394925470356 10.6624226287829 14.8130220174753
 115 16 6 -0.0423 -0.461057223684899 9.92736306164172 13.8834468543624
 116 16 6 -0.131 0.168110242577696 10.5060570997228 12.782312207879
 117 16 6 -0.148 0.687079221560561 9.68337812078257 11.772970592536
 118 16 6 -0.029 0.545141877756977 8.29774535378278 11.8409751912811
 119 16 6 -0.1499 -0.0790317425791995 7.74572396285775 12.9589808601566
 120 16 6 -0.0955 -0.584059287979887 8.54384774077345 13.9798410922707
 121 16 6 0.0003 1.05136844315027 7.51783047063579 10.8810082962603
 122 16 6 -0.1631 1.98922204913221 8.03041446475065 9.98100780608047
 123 16 6 -0.0778 2.50027658403983 7.22074723759245 8.96638646626137
 124 16 6 -0.0891 2.0654965701067 5.90793077297459 8.84709996361937
 125 16 6 -0.107 1.11569587868771 5.38758478766218 9.74758855441287
 126 16 6 -0.1606 0.603335829665587 6.1919657749762 10.7637496673343
 127 16 5 0.0578 2.52453900384746 5.16974287601282 7.92641113301235
 128 16 4 -0.467 2.34971263114286 4.38666384005589 7.39472117368293
 129 18 4 -0.152 16.7795158155067 6.91721999331783 2.82743803395728
 130 18 5 -0.026 17.5885350433554 7.68640362448873 2.32470109428611
 131 18 6 -0.0423 18.710832240084 7.46943032065493 2.87955926322533
 132 18 6 -0.131 18.8235856930479 6.49213067946242 3.86718675887828
 133 18 6 -0.148 20.071348889789 6.24863046011868 4.45769048286143
 134 18 6 -0.029 21.1889578576892 6.99991888176673 4.09538549757052
 135 18 6 -0.1499 21.049352037366 7.96347299215432 3.09722183800006
 136 18 6 -0.0955 19.8240712662357 8.20729033819877 2.48611617310562
 137 18 6 0.0003 22.3782657887233 6.75604119940933 4.65407979790589
 138 18 6 -0.1631 22.5955908045803 5.56548262372467 5.35240116729572
 139 18 6 -0.0778 23.8309619545627 5.32240278757382 5.95320440850545
 140 18 6 -0.0891 24.8394646168121 6.27204190496815 5.86455945969083
 141 18 6 -0.107 24.6241702346799 7.47667564070044 5.16723106376966
 142 18 6 -0.1606 23.3923396174008 7.72348766967874 4.56407092526136
 143 18 5 0.0578 25.9616974164554 6.05716292679805 6.41020569870034
 144 18 4 -0.467 26.7518282711001 6.48020629204511 6.76120255575031
 145 20 4 -0.152 40.6084483199325 4.22010792444394 23.6605621508224
 146 20 5 -0.026 39.5940334257431 3.57362973944335 23.8884401417845
 147 20 6 -0.0423 38.6203270484598 4.20374758226312 23.3694571025644
 148 20 6 -0.131 38.8451094490324 5.4033271530734 22.6958713799667
 149 20 6 -0.148 37.7652843423698 6.07887252104363 22.110622548413
 150 20 6 -0.029 36.4670665750949 5.58370339896162 22.2297324525702
 151 20 6 -0.1499 36.2730580121769 4.37632324603687 22.8996957678628
 152 20 6 -0.0955 37.3336733784249 3.68152453195904 23.4711498708268
 153 20 6 0.0003 35.4428849347128 6.22645892548415 21.6605345075379
 154 20 6 -0.1631 35.6785599749993 7.20137430802188 20.6877499004037
 155 20 6 -0.0778 34.6091548417214 7.88636322700938 20.1103790824858
 156 20 6 -0.0891 33.3112911496398 7.60417352961634 20.5137013003979
 157 20 6 -0.107 33.0679988009477 6.6268573355711 21.4982940537354
 158 20 6 -0.1606 34.1328271682291 5.93879799214592 22.0769475667793
 159 20 5 0.0578 32.3374300080212 8.2248504627636 19.99440959865
 160 20 4 -0.467 31.4215676836884 8.48955428557646 20.1270720992142
 161 22 4 -0.152 27.480735371775 26.3449970198238 16.3346639263067
 162 22 5 -0.026 27.8626706414604 25.3653774840403 16.9618568909369
 163 22 6 -0.0423 26.857337886299 24.6054065932139 17.1238639787327
 164 22 6 -0.131 25.6139354242274 24.9747947152952 16.613238154298
 165 22 6 -0.148 24.5169309928888 24.1185190408386 16.7813846587436
 166 22 6 -0.029 24.6489377613334 22.9228568447328 17.4868739399438
 167 22 6 -0.1499 25.9066413104017 22.5736638644 17.9772850380516
 168 22 6 -0.0955 27.0113437888367 23.4007561267061 17.8047717812479
 169 22 6 0.0003 23.6020500767667 22.1054106342346 17.6347822522344
 170 22 6 -0.1631 22.467850269123 22.2644823160364 16.8344075799779
 171 22 6 -0.0778 21.3677040283988 21.4238082809293 17.0051109347112
 172 22 6 -0.0891 21.3992949609589 20.4364061780666 17.9801950850501
 173 22 6 -0.107 22.5374208887477 20.275325382269 18.7941258866051
 174 22 6 -0.1606 23.6395121541466 21.1116283737058 18.6264441963549
 175 22 5 0.0578 20.4023672814186 19.6724067266986 18.1406609383516
 176 22 4 -0.467 19.9553546899479 19.0951262183718 18.7678755808566
 177 24 4 -0.152 6.49556349717231 27.0739625618274 4.72329690488198
 178 24 5 -0.026 5.3445914754741 26.9250678100657 4.33343313615534
 179 24 6 -0.0423 5.25687505159142 27.4815615289746 3.19452288078131
 180 24 6 -0.131 6.37095305931246 28.1052940132177 2.63503742001194
 181 24 6 -0.148 6.26657894682001 28.6984242894655 1.36925603286817
 182 24 6 -0.029 5.05192729604987 28.7046507083791 0.684178227805927
 183 24 6 -0.1499 3.9569664046677 28.0640480195067 1.26292328510923
 184 24 6 -0.0955 4.04505876205311 27.4537151121442 2.50949597804003
 185 24 6 0.0003 4.96108647781894 29.2622733107297 -0.526967502108882
 186 24 6 -0.1631 6.1176664010327 29.5542679768416 -1.25454884861322
 187 24 6 -0.0778 6.02140884842683 30.156078707649 -2.50944029708652
 188 24 6 -0.0891 4.77357336880164 30.4740609717167 -3.02765250798754
 189 24 6 -0.107 3.60452578413473 30.1877497164028 -2.29613722457576
 190 24 6 -0.1606 3.69538283589924 29.5852583531032 -1.04279203936375
 191 24 5 0.0578 4.68103540753591 31.0225542147459 -4.1651502609858
 192 24 4 -0.467 4.11634856379214 31.563552436382 -4.7263284347322
 193 26 4 -0.152 38.461204360356 37.4493119926772 18.2038665718571
 194 26 5 -0.026 37.9677065486465 38.2829375038241 18.9524842426363
 195 26 6 -0.0423 38.2043937760502 37.9080579828107 20.1432573113227
 196 26 6 -0.131 38.9137497340251 36.7308631491927 20.3762003270767
 197 26 6 -0.148 39.1855743446015 36.3383752004998 21.6941398519472
 198 26 6 -0.029 38.7201425390722 37.0917223035814 22.7714468540038
 199 26 6 -0.1499 38.0225872603391 38.2701572603381 22.5088355712962
 200 26 6 -0.0955 37.7588535082101 38.6863556320849 21.20828437148
 201 26 6 0.0003 38.9915426649006 36.7183365644805 24.0256374541665
 202 26 6 -0.1631 39.9918985007957 35.77584072596 24.2772371671275
 203 26 6 -0.0778 40.25895368121 35.3714428070357 25.5854183752878
 204 26 6 -0.0891 39.5199887600195 35.8999783370059 26.6348615794724
 205 26 6 -0.107 38.5062058295301 36.8457348129633 26.3867691409887
 206 26 6 -0.1606 38.2366790029182 37.2540283730045 25.0818642944327
 207 26 5 0.0578 39.7569306525193 35.5343553663228 27.8237634395464
 208 26 4 -0.467 39.381800664442 35.4642177557258 28.7074089893145
 209 28 4 -0.152 16.3950377760913 11.9275053197706 11.0863160022598
 210 28 5 -0.026 16.3677442129627 12.7215758077659 12.0177703068323
 211 28 6 -0.0423 17.5216533701555 13.2472118802173 12.0996016961907
 212 28 6 -0.131 18.5244447922072 12.8714446324763 11.2071643934155
 213 28 6 -0.148 19.7874525142223 13.4730709304758 11.2952398819786
 214 28 6 -0.029 20.0606856025717 14.4121586943648 12.2893258194836
 215 28 6 -0.1499 19.0357570700912 14.7768907429838 13.1615351040119
 216 28 6 -0.0955 17.7706278905998 14.2052195390019 13.0787692068239
 217 28 6 0.0003 21.2634267122842 14.9902916585285 12.3617488735126
 218 28 6 -0.1631 22.1455900482501 14.9145893516264 11.2808373928597
 219 28 6 -0.0778 23.4088486863088 15.500275119991 11.3665346139649
 220 28 6 -0.0891 23.7905353732771 16.1484674416065 12.5331159386869
 221 28 6 -0.107 22.9078818476525 16.2226149450055 13.6281894072004
 222 28 6 -0.1606 21.6443181244897 15.6404407296038 13.5469188686981
 223 28 5 0.0578 24.9369437544569 16.6795685893213 12.6167140514444
 224 28 4 -0.467 25.616557879068 16.9749132766432 13.231016425931
 225 30 4 -0.152 8.45753466963588 35.4657495738481 8.85943488007183
 226 30 5 -0.026 8.18890198183993 36.6134144589438 9.19049649150671
 227 30 6 -0.0423 8.38729533529435 36.7013665136658 10.4424551623003
 228 30 6 -0.131 8.83217594974852 35.5909015298558 11.1581260074622
 229 30 6 -0.148 9.06625723844352 35.7061142101914 12.5353812447268
 230 30 6 -0.029 8.82110213685185 36.9067985605274 13.2009675028645
 231 30 6 -0.1499 8.38677110041585 38.0040243627946 12.4581962799246
 232 30 6 -0.0955 8.16646400712579 37.9151203008366 11.087878487435
 233 30 6 0.0003 9.05629342931603 37.013793577121 14.5121906426745
 234 30 6 -0.1631 9.83683073691465 36.0571569826277 15.1663470132183
 235 30 6 -0.0778 10.0632629941435 36.1588999126976 16.5391438039586
 236 30 6 -0.0891 9.50125617711414 37.2071381730547 17.2547518580888
 237 30 6 -0.107 8.70848148951703 38.170978450908 16.601849711138
 238 30 6 -0.1606 8.48062334355331 38.0745461972514 15.2303882695463
 239 30 5 0.0578 9.70183698810932 37.3025459473734 18.5013367709047
 240 30 4 -0.467 9.3573259810599 37.6723684946507 19.3204916399906
 241 32 4 -0.152 26.1952778515509 29.9004008349892 28.5186229191758
 242 32 5 -0.026 27.0426549749754 30.7351513705936 28.8085255821592
 243 32 6 -0.0423 27.2595367525479 30.6351760588194 30.0565092485558
 244 32 6 -0.131 26.5679599362583 29.6890097080399 30.8113117020648
 245 32 6 -0.148 26.8305494445605 29.5751760912762 32.1835320407219
 246 32 6 -0.029 27.7455848302963 30.4238115537096 32.8058479530621
 247 32 6 -0.1499 28.430570699903 31.3535657089828 32.0244334860913
 248 32 6 -0.0955 28.1978067438448 31.4695313807889 30.658204038406
 249 32 6 0.0003 27.9997373056434 30.3035148960322 34.1123716740204
 250 32 6 -0.1631 27.6128101636103 29.150446585069 34.8001459659292
 251 32 6 -0.0778 27.8597896051486 29.0360133123364 36.1683931662366
 252 32 6 -0.0891 28.4808331151362 30.0760295914538 36.8461992578832
 253 32 6 -0.107 28.8675377794948 31.2433166799738 36.1594231986487
 254 32 6 -0.1606 28.6243778858946 31.3617648646191 34.7923210467601
 255 32 5 0.0578 28.7050459743972 29.9779853925245 38.0885458998469
 256 32 4 -0.467 28.8650090994171 30.4800630025869 38.8940278190157
 257 34 4 -0.152 35.7297031839851 2.42894769506616 1.53265316023132
 258 34 5 -0.026 36.5885449011196 2.20484943200976 2.3759033445803
 259 34 6 -0.0423 36.7103185244754 3.25602176674038 3.07925525319488
 260 34 6 -0.131 35.9265762993564 4.37520386430582 2.80282161368171
 261 34 6 -0.148 36.056225261822 5.52194934484508 3.59847602948947
 262 34 6 -0.029 36.9871884622936 5.5669316203028 4.63579618945086
 263 34 6 -0.1499 37.7501261253745 4.42929415589187 4.89649548331506
 264 34 6 -0.0955 37.6231472794 3.27552655679262 4.13039712152087
 265 34 6 0.0003 37.0988426499655 6.65913972235539 5.39782230723554
 266 34 6 -0.1631 36.0944433267404 7.63039282467916 5.38509319370205
 267 34 6 -0.0778 36.2230523992291 8.77997254785223 6.16491393345122
 268 34 6 -0.0891 37.3571574719969 8.96086017359969 6.94455189479849
 269 34 6 -0.107 38.375725835844 7.98816657967552 6.9566622419763
 270 34 6 -0.1606 38.2512071519631 6.83738834225302 6.18056331423619
 271 34 5 0.0578 37.479696736441 10.0036762470881 7.65224392919183
 272 34 4 -0.467 38.115298093001 10.5773284335937 8.09202266271174
 273 36 4 -0.152 33.8531931290839 25.1144296546039 15.2589615077913
 274 36 5 -0.026 34.3648469135158 24.9554884330864 16.3598012295397
 275 36 6 -0.0423 35.6248164523985 24.9730095119201 16.1965046500153
 276 36 6 -0.131 36.1608255209553 25.1518855147338 14.9221680955516
 277 36 6 -0.148 37.5524215583302 25.1891446136327 14.7579358565981
 278 36 6 -0.029 38.4028275362171 25.0099210418139 15.8485492546814
 279 36 6 -0.1499 37.8391745586229 24.8436831551763 17.1130322659929
 280 36 6 -0.0955 36.4611273313348 24.822401033685 17.2994267687782
 281 36 6 0.0003 39.7287000868108 25.057111532316 15.6876019428422
 282 36 6 -0.1631 40.2759916259331 25.594654702962 14.519769792875
 283 36 6 -0.0778 41.6596950208225 25.6232858042256 14.3444432557733
 284 36 6 -0.0891 42.4902164239011 25.105730119095 15.328882340642
 285 36 6 -0.107 41.94403557454 24.5569791679739 16.5054535766642
 286 36 6 -0.1606 40.5624859423246 24.5274631371557 16.6859374198483
 287 36 5 0.0578 43.7466707565446 25.1272038818462 15.1734132520913
 288 36 4 -0.467 44.5732135896262 24.716016290029 15.445852161605
 289 38 4 -0.152 14.0912368695376 16.3423455697791 27.2104759217909
 290 38 5 -0.026 13.3457845857305 17.08612805332 27.8349665219959
 291 38 6 -0.0423 12.3427497714112 16.3963637051076 28.1991674352272
 292 38 6 -0.131 12.2651067486193 15.0459568035801 27.8621084473354
 293 38 6 -0.148 11.1629538113076 14.2910678391045 28.286727752229
 294 38 6 -0.029 10.1277334410141 14.8861561335175 29.007101062938
 295 38 6 -0.1499 10.2369617675484 16.2359436442862 29.3393657894066
 296 38 6 -0.0955 11.3312206179616 16.9975474469172 28.9434273900181
 297 38 6 0.0003 9.08458668532204 14.1590510819844 29.4184793439937
 298 38 6 -0.1631 9.15800993334361 12.7637319124429 29.4209413268891
 299 38 6 -0.0778 8.0604092268969 12.0061897591137 29.8303272019962
 300 38 6 -0.0891 6.89160835006418 12.6429498236139 30.2242702569835
 301 38 6 -0.107 6.80963072261237 14.0490085066667 30.2179735587002
 302 38 6 -0.1606 7.90386950622593 14.810191190749 29.8113196445554
 303 38 5 0.0578 5.89182072296557 11.9597741797798 30.5944121086734
 304 38 4 -0.467 4.93519462178681 11.9718545420801 30.700203494855
 305 40 4 -0.152 30.1974933124994 36.6225399930382 13.8711369298053
 306 40 5 -0.026 29.8693368779382 36.3846340796917 15.0263919366548
 307 40 6 -0.0423 30.9080365462776 35.9842517927275 15.6390035781349
 308 40 6 -0.131 32.1241047303727 35.8916742447944 14.9638416943985
 309 40 6 -0.148 33.2669641389616 35.4674989632888 15.6558299188354
 310 40 6 -0.029 33.1904213785816 35.1006994751189 16.9990902589451
 311 40 6 -0.1499 31.9635025144241 35.2134195527824 17.6519465102485
 312 40 6 -0.0955 30.8221524878164 35.6498668300204 16.9878351559153
 313 40 6 0.0003 34.2854664308411 34.7072842353098 17.6564864732694
 314 40 6 -0.1631 35.5526723272258 34.9571680614672 17.1235137636561
 315 40 6 -0.0778 36.693764478555 34.5266119404038 17.8008056862345
 316 40 6 -0.0891 36.56554800567 33.8393433529095 18.9999605656077
 317 40 6 -0.107 35.2905874337834 33.5791295722645 19.5389645808961
 318 40 6 -0.1606 34.1477355502958 34.008516950239 18.8669221327983
 319 40 5 0.0578 37.5981152367504 33.44437103658 19.6173024746274
 320 40 4 -0.467 37.9259497714727 32.8091144259695 20.2618525553187
 321 42 4 -0.152 24.2506176674023 18.2837638258728 21.2723028207417
 322 42 5 -0.026 24.5605525466117 18.404160187123 22.4505833844646
 323 42 6 -0.0423 25.2770989780872 17.4005382032471 22.7568514451902
 324 42 6 -0.131 25.5623588469101 16.4285711093251 21.7991757299442
 325 42 6 -0.148 26.3703451033762 15.3362778719135 22.14407237079
 326 42 6 -0.029 26.8571540296892 15.1931948311873 23.4430309200588
 327 42 6 -0.1499 26.5649317780522 16.1859886991721 24.377495200457
 328 42 6 -0.0955 25.7805449108776 17.2867465817684 24.0499599710449
 329 42 6 0.0003 27.6358391408204 14.1553270223317 23.7632635059143
 330 42 6 -0.1631 28.2313360377782 13.3875852770484 22.75913767821
 331 42 6 -0.0778 29.026361791865 12.2915947147029 23.095192669526
 332 42 6 -0.0891 29.2144649430956 11.9597272210885 24.4298203970887
 333 42 6 -0.107 28.6116973382495 12.7262237174116 25.4461448215087
 334 42 6 -0.1606 27.8178704772174 13.8228956684382 25.1155778138761
 335 42 5 0.0578 29.9332124488641 10.9644603141194 24.7399091857342
 336 42 4 -0.467 30.1115608790861 10.3156817702676 25.4282038090423
 337 44 4 -0.152 16.3640883013441 9.48151631949806 16.9999418400652
 338 44 5 -0.026 16.9938993010781 9.27831824288283 18.0299654544905
 339 44 6 -0.0423 18.1095231408052 8.76992788984792 17.6961710609281
 340 44 6 -0.131 18.4016393938881 8.55029505947508 16.3509329725188
 341 44 6 -0.148 19.6437082747607 8.00717019979744 15.9943095268959
 342 44 6 -0.029 20.5711076974739 7.64905029969115 16.9722816368761
 343 44 6 -0.1499 20.2565802806915 7.88988196416748 18.3091921101232
 344 44 6 -0.0955 19.0372138224218 8.44502113283162 18.6822550322444
 345 44 6 0.0003 21.7579179792458 7.14159545731023 16.6258138345846
 346 44 6 -0.1631 22.2143648777254 7.25696469003535 15.3102687807728
 347 44 6 -0.0778 23.4438298815181 6.70769684246402 14.9456938835659
 348 44 6 -0.0891 24.2066713790553 6.03650301259047 15.891379715317
 349 44 6 -0.107 23.7488775144353 5.9116731340643 17.2175031179245
 350 44 6 -0.1606 22.5220907290648 6.45995877709515 17.586964938532
 351 44 5 0.0578 25.3221632567512 5.53413433577392 15.564863508448
 352 44 4 -0.467 25.9754302277778 4.867143815134 15.7990368629146
 353 46 4 -0.152 12.3240549771307 -0.66183684263745 30.7594493425308
 354 46 5 -0.026 12.3252415339168 -1.46188740646199 31.686173512609
 355 46 6 -0.0423 12.8549710836571 -0.881860358792219 32.6848983135944
 356 46 6 -0.131 13.3011668739685 0.433946473424726 32.5717714069824
 357 46 6 -0.148 13.8657657433009 1.06932407690299 33.6864118950981
 358 46 6 -0.029 14.0207164730704 0.386274578430975 34.8923068548607
 359 46 6 -0.1499 13.555727754954 -0.925352032471144 34.9799317691139
 360 46 6 -0.0955 12.9758018238822 -1.56710529177372 33.8908731533153
 361 46 6 0.0003 14.549884783529 1.00057079297307 35.9547051135216
 362 46 6 -0.1631 14.6568817489422 2.39349350095115 35.9798168357124
 363 46 6 -0.0778 15.2292634702727 3.03139442697058 37.0805692117127
 364 46 6 -0.0891 15.702302516512 2.27709126630281 38.1454686447765
 365 46 6 -0.107 15.602779312326 0.872330341271417 38.123043762759
 366 46 6 -0.1606 15.0304292544773 0.230533817684157 37.0263953990654
 367 46 5 0.0578 16.2248241739208 2.85122475386617 39.1457941447999
 368 46 4 -0.467 16.8224093524229 2.72955662725794 39.8904820468114
 369 48 4 -0.152 28.9526236142313 8.04939671302567 34.3684882396721
 370 48 5 -0.026 28.1733320850771 7.4518185263326 33.6373897351071
 371 48 6 -0.0423 28.0467012432061 6.27579240650482 34.1015267788451
 372 48 6 -0.131 28.7442201449119 5.89938471937625 35.2482702701429
 373 48 6 -0.148 28.5807673792165 4.6053348078669 35.7617077248627
 374 48 6 -0.029 27.7599660879441 3.68161916495078 35.1153458670171
 375 48 6 -0.1499 27.0661588801412 4.08878078820984 33.9764393866835
 376 48 6 -0.0955 27.2004728405702 5.37389181823019 33.4619888054282
 377 48 6 0.0003 27.5996132688047 2.45269771971005 35.6154539101652
 378 48 6 -0.1631 27.9781209617121 2.17479051259141 36.9314372422183
 379 48 6 -0.0778 27.8298817900999 0.886062315583525 37.4446613665894
 380 48 6 -0.0891 27.3158129686273 -0.121507454341497 36.6401202517153
 381 48 6 -0.107 26.9383281307445 0.151249491911795 35.3108836868258
 382 48 6 -0.1606 27.0830552901935 1.43736297605389 34.7940750614859
 383 48 5 0.0578 27.1815536075413 -1.29338777562926 37.1005333124979
 384 48 4 -0.467 27.1088450614042 -2.22235673182076 36.8592836580917
 385 50 4 -0.152 12.4500953824145 27.7950886858008 25.2242101392176
 386 50 5 -0.026 12.1737105192597 28.7886084717568 24.5643390591323
 387 50 6 -0.0423 12.4477615135197 28.5247705585243 23.3519935604867
 388 50 6 -0.131 12.9645468417547 27.276302613374 23.0092156229628
 389 50 6 -0.148 13.2442300970104 26.9905119134383 21.6657123842023
 390 50 6 -0.029 13.0479817173987 27.9544507547905 20.6772502030177
 391 50 6 -0.1499 12.5199435836514 29.1907591278054 21.0473506436038
 392 50 6 -0.0955 12.2185030604118 29.4871528745336 22.3723013437619
 393 50 6 0.0003 13.3062869968747 27.672690005897 19.3966416512042
 394 50 6 -0.1631 13.4631681495119 26.3460965338878 18.9869458084504
 395 50 6 -0.0778 13.7541038641972 26.0553964296351 17.6538876405867
 396 50 6 -0.0891 13.8983840236197 27.0888596228895 16.7385259285923
 397 50 6 -0.107 13.7474913351663 28.4283279390773 17.1469583299762
 398 50 6 -0.1606 13.4553418407494 28.7237709433753 18.477179027501
 399 50 5 0.0578 14.1648113905901 26.8303109241327 15.5279565259968
 400 50 4 -0.467 14.5404797904306 27.1902840520304 14.7181640522402
 401 52 4 -0.152 39.9740271012161 3.59326478502691 34.4577074143446
 402 52 5 -0.026 39.2532924412216 4.58124673168244 34.3999733432484
 403 52 6 -0.0423 38.1233378144415 4.19910101632605 33.9621797918419
 404 52 6 -0.131 37.9129792934218 2.85642461166217 33.6520098948608
 405 52 6 -0.148 36.6559572065658 2.44403568734412 33.1886192947664
 406 52 6 -0.029 35.629275216428 3.36837343317174 32.9981650410333
 407 52 6 -0.1499 35.8644667407033 4.70291160948494 33.3267221941615
 408 52 6 -0.0955 37.0988361196745 5.12881011518565 33.80542115917
 409 52 6 0.0003 34.4296660173714 2.96773602977908 32.5663127045319
 410 52 6 -0.1631 34.0849220347583 1.61424374863845 32.6053364273785
 411 52 6 -0.0778 32.840437602419 1.19547997813955 32.1340725715795
 412 52 6 -0.0891 31.9505881284993 2.12631770408479 31.6159422388234
 413 52 6 -0.107 32.2950079005699 3.49118752598195 31.5683356228832
 414 52 6 -0.1606 33.5363788611911 3.91466557471747 32.039280927951
 415 52 5 0.0578 30.82078050477 1.75093018313102 31.1847483236583
 416 52 4 -0.467 30.0930172670672 1.98357361045226 30.5993348325492
 417 54 4 -0.152 28.3514233973692 20.3781656060527 7.75311103300474